/*--------------------------------*- C++ -*----------------------------------*\
| =========                 |                                                 |
| \\      /  F ield         | OpenFOAM: The Open Source CFD Toolbox           |
|  \\    /   O peration     | Version:  2.1.0                                 |
|   \\  /    A nd           | Web:      www.OpenFOAM.org                      |
|    \\/     M anipulation  |                                                 |
\*---------------------------------------------------------------------------*/
FoamFile
{
    version     2.0;
    format      ascii;
    class       volScalarField;
    location    "0";
    object      zeroGradScalar;
}
// * * * * * * * * * * * * * * * * * * * * * * * * * * * * * * * * * * * * * //

dimensions      [1 0 -1 0 0 0 0];

internalField   uniform 0;

boundaryField
{
    outerBoundaryWall
    {
        type            zeroGradient;
    }

    bottomBoundaryFloor
    {
        type            zeroGradient;
    }

    rodPillarSystem
    {
        type            zeroGradient;
    }

    atmosphere
    {
        type            zeroGradient;
    }
}

// ************************************************************************* //
